{"Purpurite": {"Formula": ["Mn3+(PO4)", "Mn3+(PO4)Purpurite forms by leaching of Li out of its site leaving a vacancy and by oxidation of divalent Mn."], "Colour": "Dark purple to purplish red.", "Lustre": "Dull, Earthy", "Hardness": ["4 - 4\u00bd", "4 - 4\u00bd on Mohs scale"], "Specific Gravity": "3.2 - 3.4", "Crystal System": "Orthorhombic", "Member of": "Triphylite Group", "Name": "Named in 1905 by Louis C. Graton and Waldemar T. Schaller from the Latin \"purpura\" in allusion to its colour.", "Type Locality": "\u24d8 Faires Mine, Kings Mountain, Gaston Co., North Carolina, USA", "Isostructural with": "Heterosite, Lithiophilite, Olivine Group, Triphylite", "IMA status": "Approved, 'Grandfathered' (first described prior to 1959)", "Strunz 8th ed.": "7/A.02-60", "Nickel-Strunz 10th (pending) ed.": "8.AB.108 : PHOSPHATES, ARSENATES, VANADATESA : Phosphates, etc. without additional anions, without H2OB : With medium-sized cations", "Dana 8th ed.": "38.4.1.238 : ANHYDROUS NORMAL PHOSPHATES, ARSENATES, AND VANADATES4 : AXO4", "Hey's CIM Ref.": "19.12.1119 : Phosphates12 : Phosphates of Mn", "Transparency": "Opaque", "Comment": ["Luster of fresh fracture surfaces is satiny; dull on altered surfaces.", "Pmnb setting chosen to show relationship to the olivine structure", "Dark brown to brown-black on altered surfaces."], "Streak": "Light to medium purple, lighter than the colour of the massive mineral.", "Tenacity": "Brittle", "Cleavage": "Distinct/GoodOn {100}, good; on {010}, imperfect. Cleavage surfaces curved or crinkled at times.", "Fracture": "Irregular/Uneven", "Density": "3.2 - 3.4 g/cm3 (Measured) \u00a0\u00a0\u00a03.69 g/cm3 (Calculated)", "Type": "Biaxial (+)", "RI values": " n\u03b1 = 1.852(2) n\u03b2 = 1.862(2) n\u03b3 = 1.922(2)", "2V": "Measured: 38\u00b0 , Calculated: 38\u00b0 ", "Birefringence": "0.040", "Surface Relief": "Very High", "Dispersion": "Moderate", "Optical Extinction": "Parallel", "Pleochroism": "Strong", "Comments": ["ICDD 37-478", "Z = Y > X. Also Z > Y >> X. Optic axis sections may exhibit anomalous green interference colours.", "X = Greenish gray, gray to rose-red\nY = Deep blood-red to purplish red\nZ = Deep blood-red to purplish red"], "Elements listed": "Mn, O, P - search for minerals with similar chemistry", "Common Impurities": "Fe", "Class (H-M)": "mmm (2/m 2/m 2/m) - Dipyramidal", "Space Group": "Pmna ", "Cell Parameters": "a = 5.8237(6) \u212b, b = 9.766(1) \u212b, c = 4.7771(5) \u212b", "Ratio": "a:b:c = 0.596 : 1 : 0.489", "Unit Cell V": "271.69 \u00c5\u00b3 (Calculated from Unit Cell)", "Z": "4", "Morphology": "Massive, cleavage fragments to 20 cm.", "Powder Diffraction Data": "d-spacingIntensity4.883 \u00c5(70)4.293 \u00c5(100)3.455 \u00c5(65)2.946 \u00c5(60)2.912 \u00c5(60)2.4433 \u00c5(70)2.4099 \u00c5(30)", "Geological Setting": "Primarily an alteration product of lithiophylite in complex granitic pegmatites, rarely from the reaction of bat guano, Fe-Mn deposits and sea water.", "In UV light": "Not fluorescent in UV", "Notes": "Readily soluble in HCl.", "Health Risks": "No information on health risks for this material has been entered into the database. You should always treat mineral specimens with care.", "Reference List": "Sort by Year (asc) | by Year (desc) | by Author (A-Z) | by Author (Z-A)Graton, L.C. & D.T. Schaller (1905), Purpurite, a new mineral, American Journal of Science, 4th. Series: 20: 146-151.Schaller (1907) American Journal of Science: 24: 152 (as manganipurpurite).Pisani in: Lacroix, A. (1910) Min\u00e9ralogie de la France et des ses colonies, Paris. 5 volumes: vol. 4: 470.Schaller (1910) USGS Bull. 490: 72.Schaller, Waldemar Theodore (1911), Notes on purpurite and heterosite: USGS Bull. 490: 79.Larsen, E.S. (1921) The Microscopic Determination of the Nonopaque Minerals, First edition, USGS Bulletin 679: 84, 124.de Jesus (1933) Com. Serv. Geol. Portugal: 19: 65 (as Neopurpurite).Quensel (1937) Geologiska F\u00f6eningens I Stockholm. F\u00f6rhandlinger, Stockholm: 59: 77 (as Na-heterosite).Bj\u00f6rling and Westgren (1938) Geologiska F\u00f6eningens I Stockholm. F\u00f6rhandlinger, Stockholm: 60: 67.Mason (1941) Geologiska F\u00f6eningens I Stockholm. F\u00f6rhandlinger, Stockholm: 63: 117.Fisher (1945) South Dakota Geological Survey Report 50.Palache, C., Berman, H., & Frondel, C. (1951), The System of Mineralogy of James Dwight Dana and Edward Salisbury Dana, Yale University 1837-1892, Volume II. John Wiley and Sons, Inc., New York, 7th edition, revised and enlarged, 1124 pp.: 675-677.Memoir. Noticias University Coimbra,Portugal (1960): 50: 55-60.\n", "mindat.org URL": "https://www.mindat.org/min-3311.htmlPlease feel free to link to this page.", "Search Engines": "Look for Purpurite on Google\nLook for Purpurite images on Google", "External Links": "Look for Purpurite on Webmineral\nLook for Purpurite on Wikipedia\nLook for Purpurite on Mineralien Atlas\nRaman and XRD data at RRUFF project\nReferences and PDF downloads at RRUFF project\nAmerican Mineralogist Crystal Structure Database\nHandbook of Mineralogy page PDF", "Mineral Dealers": "Fine Minerals from Weinrich Minerals, Inc.Top quality minerals from Kristalle of CaliforniaBuy rare minerals from Excalibur MineralsBuy from David K Joyce mineralsBlue Gems Australian & InternationalQuality Minerals at Fair PricesWilensky Exquisite MineralsQuality Mineral Specimens For Sale ~ Cal Neva Mineral CompanyFabre Minerals - search for Purpurite specimensHigh-end worldwide specimens & outstanding customer serviceBuy from McDougall Minerals"}, "Putoranite": {"Formula": ["Cu1.1Fe1.2S2Previously given as Cu9(Fe,Ni)9S16.", "Cu1.1Fe1.2S2"], "Colour": "Yellow", "Lustre": "Metallic", "Hardness": ["VHN50=259 - 263 kg/mm2 - Vickers", "4\u00bd", "4\u00bd on Mohs scale"], "Crystal System": "Isometric", "Member of": "Talnakhite Group", "Name": "Named for the Putoran Mountains / Plateau in central Siberia, that includes the type locality. The plateau is covered with basaltic lava flows and is the second largest basalt plateau in the world after the Deccan in India. It also contains some of the largest known nickel deposits in the world. The Putorana Nature Reserve, established in 1988, covers over 4,500,000 acres and a similar sized buffer zone. In 2010 it was made a UNESCO World Heritage Site.", "Type Locality": "\u24d8 Oktyabrsky Mine (Oktyabr'skoe Cu-Ni deposit; Oktyabr'skoye; Oktyabr'sky), Talnakh Cu-Ni Deposit, Noril'sk, Putoran Plateau, Taimyr Peninsula, Taymyrskiy Autonomous Okrug, Krasnoyarsk Krai, Russia", "IMA status": "Approved", "First published": "1980", "Strunz 8th ed.": "2/C.04-30", "Nickel-Strunz 10th (pending) ed.": "2.CB.10b2 : SULFIDES and SULFOSALTS (sulfides, selenides, tellurides; arsenides, antimonides, bismuthides; sulfarsenites, sulfantimonites, sulfbismuthites, etc.)C : Metal Sulfides, M: S = 1: 1 (and similar)B : With Zn, Fe, Cu, Ag, etc.", "Dana 8th ed.": "2.9.7.12 : SULFIDES9 : AmBnXp, with (m+n):p = 1:1", "Hey's CIM Ref.": "3.1.313 : Sulphides, Selenides, Tellurides, Arsenides and Bismuthides (except the arsenides, antimonides and bismuthides of Cu, Ag and Au, which are included in Section 1)1 : Sulphides etc. of Cu", "Transparency": "Opaque", "Comment": "Nickeloan variety is slightly softer", "Anisotropism": "Distinct greenish-grey to rose-grey (nickel rich)", "Bireflectance": "Stronger in oxidized specimens", "Reflectivity": " 460nmR=24.4% 480nmR=25.1% 500nmR=30.0% 520nmR=31.8% 540nmR=38.0% 560nmR=40.0% 580nmR=41.2% 600nmR=41.2% 620nmR=40.9% 640nmR=41.9% 600nmR=41.6% 680nmR=41.2% 700nmR=41.0%Graph shows reflectance levels at different wavelengths (in nm). Top of box is 100%. Peak reflectance is 41.9%.", "Comments": "Pure material is isotropic.", "IMA Formula": "Cu1.1Fe1.2S2", "Elements listed": "Cu, Fe, S - search for minerals with similar chemistry", "Common Impurities": "Ni", "Cell Parameters": "a = 5.3 \u212b", "Unit Cell V": "148.88 \u00c5\u00b3 (Calculated from Unit Cell)", "Morphology": "Intergrowths with mooihoekite, rare single crystals", "Twinning": "Polysynthetic", "Powder Diffraction Data": "d-spacingIntensity3.05 \u00c5(100)1.873 \u00c5(90)1.596 \u00c5(60)1.081 \u00c5(50)1.216 \u00c5(30)2.65 \u00c5(20)1.326 \u00c5(20)", "Reference": "Filimonova, A.A., Evstigneeva, T.L., Laputina, I.P. (1980) Putoranite and nickel-bearing putoranite, new minerals of the chalcopyrite group. Zapiski Vsesoyuznogo Mineralogicheskogo Obshchestva: 109(3): 335-341.", "Download": "https://rruff.info/rruff_1.0/uploads/ZVMO109N3_335.pdf", "Health Risks": "No information on health risks for this material has been entered into the database. You should always treat mineral specimens with care.", "Reference List": "Sort by Year (asc) | by Year (desc) | by Author (A-Z) | by Author (Z-A)Filimonova, A.A., Evstigneeva, T.L., Laputina, I.P. (1980) Putoranite and nickel-bearing putoranite, new minerals of the chalcopyrite group. Zapiski Vsesoyuznogo Mineralogicheskogo Obshchestva: 109(3): 335-341.Fleischer, M., Cabri, L.J. (1981) New mineral names. American Mineralogist: 66: 637-639.\n", "mindat.org URL": "https://www.mindat.org/min-3312.htmlPlease feel free to link to this page.", "Search Engines": "Look for Putoranite on Google\nLook for Putoranite images on Google", "External Links": "Look for Putoranite on Webmineral\nLook for Putoranite on Wikipedia\nLook for Putoranite on Mineralien Atlas\nRaman and XRD data at RRUFF project\nReferences and PDF downloads at RRUFF project\nAmerican Mineralogist Crystal Structure Database\nHandbook of Mineralogy page PDF", "Mineral Dealers": "Quality Mineral Specimens For Sale ~ Cal Neva Mineral CompanyTop quality minerals from Kristalle of CaliforniaHigh-end worldwide specimens & outstanding customer serviceFine Minerals from Weinrich Minerals, Inc.Buy from McDougall MineralsFabre Minerals - search for Putoranite specimensQuality Minerals at Fair PricesBuy rare minerals from Excalibur MineralsBuy from David K Joyce mineralsBlue Gems Australian & InternationalWilensky Exquisite Minerals"}, "Pyrargyrite": {"Formula": "Ag3SbS3", "Colour": "Deep red or red gray", "Lustre": "Adamantine", "Hardness": ["2\u00bd", "2\u00bd on Mohs scale"], "Specific Gravity": "5.82", "Crystal System": "Trigonal", "Member of": "Proustite Group", "Name": "From the Greek, pyr and argyros, \"fire-silver\" in allusion to its color and silver content.", "Polymorph of": "Pyradoketosite, Pyrostilpnite", "IMA status": "Approved, 'Grandfathered' (first described prior to 1959)", "Strunz 8th ed.": "2/E.07-20", "Nickel-Strunz 10th (pending) ed.": "2.GA.052 : SULFIDES and SULFOSALTS (sulfides, selenides, tellurides; arsenides, antimonides, bismuthides; sulfarsenites, sulfantimonites, sulfbismuthites, etc.)G : Sulfarsenites, sulfantimonites, sulfbismuthitesA : Neso-sulfarsenites, etc. without additional S", "Dana 8th ed.": "3.4.1.23 : SULFOSALTS4 : \u00f8 = 3", "Hey's CIM Ref.": "5.2.95 : Sulphosalts - Sulpharsenites and Sulphobismuthites (those containing Sn, Ge,or V are in Section 6)2 : Sulpharsenites etc. of Ag", "Transparency": "Translucent", "Comment": "Darkens with exposure to light", "Streak": "Purplish red", "Tenacity": "Brittle", "Cleavage": "Distinct/GoodDistinct on {1011} very imperfect on {0112}", "Fracture": "Irregular/Uneven, Conchoidal", "Density": "5.82 g/cm3 (Measured) \u00a0\u00a0\u00a05.855 g/cm3 (Calculated)", "Type": "Uniaxial (-)", "RI values": " n\u03c9 = 3.084 n\u03b5 = 2.881", "Surface Relief": "Very High", "Anisotropism": "Strong in yellow white and grey blue", "Pleochroism": "Weak", "Elements listed": "Ag, S, Sb - search for minerals with similar chemistry", "Common Impurities": "As", "Class (H-M)": "3m - Ditrigonal Pyramidal", "Space Group": "R3c", "Cell Parameters": "a = 11.047 \u212b, c = 8.719 \u212b", "Ratio": "a:c = 1 : 0.789", "Unit Cell V": "921.48 \u00c5\u00b3 (Calculated from Unit Cell)", "Z": "6", "Morphology": "Prismatic crystals", "Twinning": "On {1014}, less commonly on {1011}{1120} rarely {0120}", "Crystal Atlas": "\n\nImage Loading\n\n\n\n\n\n\n\n\nClick on an icon to view\n\n\n\n\nPyrargyrite no.8 - Goldschmidt (1913-1926)\n\n\n\n\n\n3d models and HTML5 code kindly provided by\nwww.smorf.nl.\nToggle\nEdge Lines |\nMiller Indices |\nAxes\n\nTransparency\nOpaque |\nTranslucent |\nTransparent\n\nView\nAlong a-axis |\nAlong b-axis |\nAlong c-axis |\nStart rotation |\nStop rotation\n\n\n", "Geological Setting": "Hydrothermal veins as a late stage, low-temperature mineral; also formed by secondary processes.", "Health Risks": "No information on health risks for this material has been entered into the database. You should always treat mineral specimens with care.", "Reference List": "Sort by Year (asc) | by Year (desc) | by Author (A-Z) | by Author (Z-A)Palache, Charles, Harry Berman & Clifford Frondel (1944) The System of Mineralogy of James Dwight Dana and Edward Salisbury Dana Yale University 1837-1892, Volume I: Elements, Sulfides, Sulfosalts, Oxides. John Wiley and Sons, Inc., New York. 7th edition, revised and enlarged: 362-366.Engel, P., Nowacki, W. (1966): Die Verfeinerung der Kristallstruktur von Proustit, Ag3AsS3, und Pyrargyrit, Ag3SbS3. Neues Jahrbuch f\u00fcr Mineralogie, Monatshefte, 1966, 181-184.Anthony, J.W., Bideaux, R.A., Bladh, K.W., and Nichols, M.C. (1990) Handbook of Mineralogy, Volume I. Elements, Sulfides, Sulfosalts. Mineral Data Publishing, Tucson, AZ, 588pp.: 425.Harlov, D.E. (1999) Thermochemistry of Ag-Cu exchange equilibria between proustite, sinnerite, and pearceite; constraints on Ag-Cu and As-Sb mixing in pyrargyrite-proustite. European Journal of Mineralogy, 11, 709-719.Laufek, F.; Sejkora, J.; Du\u0161ek, M. (2010) The role of silver in the crystal structure of pyrargyrite: single crystal X-ray diffraction study. Journal of Geosciences, 55, 161-167.Bindi, L., Pratesi, G., Spry, P.G. (2010): Crystallographic and chemical constraints on the nature of the proustite-pyrargyrite solid solution series. American Mineralogist, 95, 1725-1729.\n", "mindat.org URL": "https://www.mindat.org/min-3313.htmlPlease feel free to link to this page.", "Search Engines": "Look for Pyrargyrite on Google\nLook for Pyrargyrite images on Google", "External Links": "Look for Pyrargyrite on Webmineral\nLook for Pyrargyrite on Wikipedia\nLook for Pyrargyrite on Mineralien Atlas\nRaman and XRD data at RRUFF project\nReferences and PDF downloads at RRUFF project\nAmerican Mineralogist Crystal Structure Database\nHandbook of Mineralogy page PDF", "Mineral Dealers": "High-end worldwide specimens & outstanding customer serviceBlue Gems Australian & InternationalQuality Minerals at Fair PricesTop quality minerals from Kristalle of CaliforniaBuy from David K Joyce mineralsFine Minerals from Weinrich Minerals, Inc.Wilensky Exquisite MineralsQuality Mineral Specimens For Sale ~ Cal Neva Mineral CompanyFabre Minerals - search for Pyrargyrite specimensBuy rare minerals from Excalibur MineralsBuy from McDougall Minerals"}, "Pyrite": {"Formula": "FeS2", "As a Commodity": "Iron pyrite", "Colour": "Pale brass-yellow", "Lustre": "Metallic", "Hardness": ["VHN100=1505 - 1520 kg/mm2 - Vickers", "6 - 6\u00bd on Mohs scale", "6 - 6\u00bd"], "Specific Gravity": "4.8 - 5", "Crystal System": "Isometric", "Member of": "Pyrite Group", "Name": "Named in antiquity from the Greek \"pyr\" for \"fire\", because sparks flew from it when struck with another mineral or metal. Known to Dioscorides (~50 CE) under the name \"\u03c0\u03b5\u03c1\u03b9 \u03c5\u03bb\u03b7\u03b6 \u03b9\u03b1\u03c4\u03c1\u03b9\u03ba\u03b7\u03b6\" which included both pyrite and chalcopyrite.", "IMA status": "Approved, 'Grandfathered' (first described prior to 1959)", "Strunz 8th ed.": "2/D.17-30", "Nickel-Strunz 10th (pending) ed.": "2.EB.05a2 : SULFIDES and SULFOSALTS (sulfides, selenides, tellurides; arsenides, antimonides, bismuthides; sulfarsenites, sulfantimonites, sulfbismuthites, etc.)E : Metal Sulfides, M: S <= 1:2B : M:S = 1:2, with Fe, Co, Ni, PGE, etc.", "Dana 7th ed.": "2.12.1.1", "Dana 8th ed.": "2.12.1.12 : SULFIDES12 : AmBnXp, with (m+n):p = 1:2", "Hey's CIM Ref.": "3.9.33 : Sulphides, Selenides, Tellurides, Arsenides and Bismuthides (except the arsenides, antimonides and bismuthides of Cu, Ag and Au, which are included in Section 1)9 : Sulphides etc. of Fe", "Pronounciation": "PlayRecorded byCountry\n\n\nSorry, your browser doesn't support HTML5 audio.Jolyon & Katya RalphUnited Kingdom", "Transparency": "Opaque", "Streak": "Greenish-black", "Hardness Data": "Measured", "Tenacity": "Brittle", "Cleavage": "Poor/IndistinctIndistinct on {001}.", "Fracture": "Irregular/Uneven, Conchoidal", "Density": "4.8 - 5 g/cm3 (Measured) \u00a0\u00a0\u00a05.01 g/cm3 (Calculated)", "Type": "Isotropic", "Anisotropism": "Rarely anisotropic, due to polishing effects", "Reflectivity": " 400nmR=38.2% 440nmR=42.8% 480nmR=48.5% 520nmR=52.6% 560nmR=54.6% 600nmR=55.2% 640nmR=56.0% 680nmR=56.8% 700nmR=57.0%Graph shows reflectance levels at different wavelengths (in nm). Top of box is 100%. Peak reflectance is 57.0%.", "Colour in reflected light": "Creamy white", "Pleochroism": "Non-pleochroic", "Elements listed": "Fe, S - search for minerals with similar chemistry", "Common Impurities": "Ni,Co,As,Cu,Zn,Ag,Au,Tl,Se,V", "Recorded ages": "Mesoarchean to Quaternary : 2858 Ma to 0 Ma - based on 17 recorded ages.", "Class (H-M)": "m3 (2/m 3) - Diploidal", "Space Group": "Pa3 ", "Setting": "Pa3 ", "Cell Parameters": "a = 5.417 \u212b", "Unit Cell V": "158.96 \u00c5\u00b3 (Calculated from Unit Cell)", "Z": "4", "Morphology": "Typically cubic or pyritohedral (pentagonal dodecahedral), sometimes octahedral and combinations are common, resulting in striated faces. Less frequently octahedral, most commonly massive, granular, and sometimes radiating, reniform, discoidal or globular.", "Twinning": "On [110], interpenetrating ('Iron Cross Law'). Twin axis [001] and twin plane {011}, penetration and contact twins. Twinning on (111) was described by Nicol (1904), Goldschmidt and Nicol (1904) and Gaubert (1928), all of whom considered it rare.", "Crystal Atlas": "\n\nImage Loading\n\n\n\n\n\n\n\n\nClick on an icon to view\n\n\n\n\nPyrite no.1 - Goldschmidt (1913-1926)\n\n\n\n\n\nPyrite no.2 - Goldschmidt (1913-1926)\n\n\n\n\n\nPyrite no.3 - Goldschmidt (1913-1926)\n\n\n\n\n\nPyrite no.7 - Goldschmidt (1913-1926)\n\n\n\n\n\nPyrite no.8 - Goldschmidt (1913-1926)\n\n\n\n\n\nPyrite no.14 - Goldschmidt (1913-1926)\n\n\n\n\n\nPyrite no.59 - Goldschmidt (1913-1926)\n\n\n\n\n\nPyrite no.86 - Goldschmidt (1913-1926)\n\n\n\n\n\nPyrite no.92 - Goldschmidt (1913-1926)\n\n\n\n\n\nPyrite no.251 - Goldschmidt (1913-1926)\n\n\n\n\n\nPyrite no.565 - Goldschmidt (1913-1926)\n\n\n\n\n\n3d models and HTML5 code kindly provided by\nwww.smorf.nl.\nToggle\nEdge Lines |\nMiller Indices |\nAxes\n\nTransparency\nOpaque |\nTranslucent |\nTransparent\n\nView\nAlong a-axis |\nAlong b-axis |\nAlong c-axis |\nStart rotation |\nStop rotation\n\n\n", "Epitaxial Minerals": "MarcasiteFeS2", "Powder Diffraction Data": "d-spacingIntensity3.128 \u00c5(35)2.7088 \u00c5(85)2.4281 \u00c5(65)2.2118 \u00c5(50)1.9155 \u00c5(40)1.6332 \u00c5(100)1.5640 \u00c5(14)1.5025 \u00c5(20)1.4479 \u00c5(25)1.2427 \u00c5(12)1.2113 \u00c5(14)1.1823 \u00c5(8)1.1548 \u00c5(6)1.1057 \u00c5(6)1.0427 \u00c5(25)1.0060 \u00c5(8)0.9892 \u00c5(6)0.9577 \u00c5(12)0.9030 \u00c5(16)0.8788 \u00c5(8)0.8565 \u00c5(8)0.8261 \u00c5(4)0.8166 \u00c5(4)0.7981 \u00c5(6)", "Comments": "ICDD 6-710", "Geological Setting": "Common in many rock types, igneous, metamorphic and sedimentary.", "In UV light": "Not fluorescent in UV", "Special Storage/Display Requirements": "Many pyrites will tarnish over time, and some will even break down due to hydrous iron sulphates and other phases. This can be mitigated somewhat by storage in low-humidity environments but is hard to stop once started. See: http://www.mindat.org/mesg-19-170458.html", "Health Risks": "Some fine-grained pyrite is metastable and may alter to melanterite, which contains sulphuric acid. Always wash hands after handling, especially decrepitated material. Avoid inhaling dust when handling or breaking. Never lick or ingest.", "Reference List": "Sort by Year (asc) | by Year (desc) | by Author (A-Z) | by Author (Z-A)Henckel, J.F. (1725) Pyritologia, oder Kie\u00df Historie. Verlegts Johann Christian Martini (Leipzig): 114-115.Stainier, X. (1893) Nodules de pyrite oolithique dans les couches de charbon. Bulletin de la Soci\u00e9t\u00e9 belge de G\u00e9ologie, 7, 179.Stainier, X. (1895) Note sur les cristaux de pyrite des charbonnages. Bulletin de la Soci\u00e9t\u00e9 belge de G\u00e9ologie, 9, 40.Stainier, X. (1895) Curieux \u00e9tat mol\u00e9culaire d'un cristal de pyrite. Bulletin de la Soci\u00e9t\u00e9 belge de G\u00e9ologie, 9, 43.de Dorlodot, L. (1904) Quelques observations sur les cubes de pyrite des quartzites reviniens. Annales de la Soci\u00e9t\u00e9 g\u00e9ologique de Belgique, 31, M501.Goldschmidt, V., Nicol, W. (1904) Spinellgesetz beim Pyrit und \u00fcber Rangordnung der Zwillingsgesetze. Neues Jahrbuch f\u00fcr Mineralogie: 2: 93-113.Nicol, W. (1904) Spinel twins of pyrite. American Journal of Science: 167: 93.Ayres, V.L. (1924) Pyrite from Tucson, Arizona. American Mineralogist: 9: 91-92.Gaubert, P. (1928) Sur un cristal de pyrite, macl\u00e9 suivant la loi des spinelles. Bulletin de la Soci\u00e9t\u00e9 Fran\u00e7aise de Min\u00e9ralogie: 51: 211-212.Onorato, E. (1931) Determinazione delle forme dirette ed inverse nella pirite. Periodico di Mineralogia: 13-16.Bannister, F.A. (1932) The distinction of pyrite from marcasite in nodular growths. Mineralogical Magazine: 23: 179-187.Grillo, E. (1932) Distinzione tra pirite e marcasite con H2O2. Periodico di Mineralogia: 84-86.Donnay, J.D.H., M\u00e9lon, J. (1935) Faci\u00e8s remarquable de cristaux de pyrite. Annales de la Soci\u00e9t\u00e9 g\u00e9ologique de Belgique, LIX, B29.Palache, C., Berman, H., Frondel, C. (1944) The System of Mineralogy of James Dwight Dana and Edward Salisbury Dana Yale University 1837-1892, Volume I: Elements, Sulfides, Sulfosalts, Oxides. John Wiley and Sons, Inc., New York. 7th edition, revised and enlarged: 282-290.Love, L.G., Amstutz, G.C. (1966) Framboidal pyrite in two andesites. Neues Jahrbuch f\u00fcr Mineralogie, Monatshefte: 3: 97-108.Gibbons, G.S. (1967) Optical Anisotropy in Pyrite. American Mineralogist: 52(3-4): 359\u2013370.Frenzel, G., Bloss, F.D. (1967) Cleavage in pyrite. American Mineralogist: 52: 994-1002.Love, L.G. (1971) Early diagenetic polyframboidal pyrite, primary and redeposited, from the Wenlockian Denbigh Grit Group, Conway, North Wales, U.K. Journal of Sedimentary Petrology: 41: 1038-1044.Berner, R.A. (1970) Sedimentary pyrite formation. American Journal of Science: 268: 1-23.Yund, R.A., Hall, H.T. (1970) Kinetics and mechanism of pyrite exsolution from pyrrhotite. Journal of Petrology: 11: 381-404.Sweeney, R.E., Kaplan, I.R. (1973) Pyrite framboid formation: laboratory synthesis and marine sediments. Economic Geology: 68: 618-634.Fleet, M.E. (1975) Structural chemistry of marcasite and pyrite type phases. Zeitschrift f\u00fcr Kristallographie: 142: 332-346.Bayliss, P. (1977) Crystal structure refinement of a weakly anisotropic pyrite. American Mineralogist: 62: 1168-1172.Gait, R.I. (1978) The Crystals Forms of Pyrite. The Mineralogical Record: 9: 219-229.Ostwald, J., England, B.M. (1979) The relationship between euhedral and framboidal pyrite in base metal sulfide ores. Mineralogical Magazine: 43: 297-300.Raiswell, R. (1982) Pyrite texture, isotopic composition and availabilities of Fe. American Journal of Science: 282: 1244-1263.Bayliss, P. (1989) Crystal chemistry and crystallography of some minerals within the pyrite group. American Mineralogist: 74: 1168-1176.Schoonen, M.A.A., Barnes, H.L. (1991) Reaction forming pyrite and marcasite from solution I. Nucleation of FeS2 below 100\u00b0 C. Geochimica et Cosmochimica Acta: 55: 1495-1504.Schoonen, M.A.A., Barnes, H.L. (1991) Reaction forming pyrite and marcasite from solution II. Via FeS precursors below 100\u00b0 C. Geochimica et Cosmochimica Acta: 55: 1505-1514.Libowitzky, E. (1994) Anisotropic pyrite: A polishing effect. Physics and Chemistry of Minerals: 21: 97\u2013103.Weise, C., publisher (1996) Pyrit und Markasit, extraLapis No. 11: Das eiserne \u00dcberall-Mineral. Weise-Verlag, M\u00fcnchen.Wilkin, R.T., Barnes, H.L. (1996) Pyrite formation by reactions of iron monosulfides with dissolved inorganic and organic sulfur species. Geochimica et Cosmochimica Acta: 60: 4167-4179.Wilkin, R.T., Barnes, H.L., Brantly, S.L. (1996) The size distribution of framboidal pyrite: an indicator of redox conditions. Geochimica et Cosmochimica Acta: 60: 3897-3912.Fleet, M.E., Mumin, A.H. (1997) Gold-bearing arsenian pyrite and marcasite and arsenopyrite from Carlin Trend gold deposits and laboratory synthesis. American Mineralogist: 82: 182-193.Gaines, R.V., Skinner, C.W.H., Foord, E.E., Mason, B., Rosenzweig, A. (1997) Dana's New Mineralogy: The System of Mineralogy of James Dwight Dana and Edward Salisbury Dana: 114.Wilkin, R.T., Barnes, H.L. (1997) Formation processes of framboidal pyrite. Geochimica et Cosmochimica Acta: 61: 323-339.Maddox, L.M. et al. (1998) Invisible gold: Comparison of Au deposition on pyrite and arsenopyrite. American Mineralogist: 83: 1240-1245.Nesbitt, H.W., Bancroft, G.M., Pratt, A.R., Scaini, M.J. (1998) Sulfur and iron surface states on fractured pyrite surfaces. American Mineralogist: 83: 1067-1076.Schaufuss, A.G., Nesbitt, H.W., Kartio, I., Laajalehto, K., Bancroft, G.M., Szargan, R. (1998) Reactivity of surface chemical states on fractured pyrite. Surface Science: 411: 321-328.Schaufuss, A.G., Nesbitt, H.W., Kartio, I., Laajalehto, K., Bancroft, G.M., Szargan, R. (1998) Incipient oxidation of fractured pyrite surface in air. Journal of Electron Spectroscopy and Related Phenomena: 96: 69-82.Nesbitt, H.W., Scaini, M., H\u00f6chst, H., Bancroft, G.M., Schaufuss, A.G., Szargan, R. (2000) Synchrotron XPS evidence for Fe2+S and Fe3+S surface species on pyrite fracture-surfaces, and their 3D electronic states. American Mineralogist: 85: 850-857.Uhlig, I., Szargan, R., Nesbitt, H.W., Laajalehto, K. (2001) Surface states and reactivity of pyrite and marcasite. Applied Surface Science: 179: 223-230.Abraitis, P.K., Pattrick, R.A.D., Vaughan, D.J. (2004) Variations in the compositional, textural and electrical properties of natural pyrite: a review. International Journal of Mineralogy Process: 74: 41\u201359.Chouinard, A., Paquette, J., Williams-Jones, A.E. (2005) Crystallographic controls on trace-element incorporation in auriferous pyrite from the Pascua epithermal high-sulfidation deposit, Chile-Argentina. The Canadian Mineralogist: 43: 951\u2013963.Bonev, I.K., Garcia-Ruiz, J.M., Atanassova, R., Otalora, F., Petrussenko, S. (2005) Genesis of filamentary pyrite associated with calcite crystals. European Journal of Mineralogy: 17: 905-913.Ohfuji, H., Rickard, D. (2005) Experimental synthesis of framboids \u2013 a review. Earth-Science Reviews: 71: 147-170. [on framboidal pyrite].Paktunic, D. (2005) Speciation of arsenic in pyrite (FeS2) by micro-XAFS. Advanced Photon Source, User Activity Report.Breitbach, A. (2006) Nanoparticles in the Environment: A Study of Surface Reactivity of Pyrite and Arsenopyrite. The 2006 National Nanotechnology Infrastructure Network Research Experience for Undergraduates Research Accomplishments: 54-55.Blanchard, M., Alfredsson, M., Brodholt, J., Wright, K., Catlow, C.R.A. (2007) Arsenic incorporation into FeS2 pyrite and its influence on dissolution: A DFT study. Geochimica et Cosmochimica Acta: 71: 624-630.Cordua, W.S. (2008) Marcasite - pyrite's evil twin. Leaverite News: 33(10): 6-7.Deditius, A.P., Utsunomiya, S., Reich, M., Kesler, S.E., Ewing, R.C., Hough, R., Walshe, J. (2011) Trace metal nanoparticles in pyrite. Ore Geology Reviews: 42: 32-46.Cabral, A.R., Beaudoin, G., Munnik, F. (2011) Lead in diagenetic pyrite: evidence for Pb-tolerant bacteria in a red-bed Cu deposit, Quebec Appalachians, Canada. Mineralogical Magazine: 75: 295-302.Schm\u00f8kel, M.S., Bjerg, L., Cenedese, S., J\u00f8rgensen, M.R.V., Chen, Y.-S., Overgaard, J., Iversen, B.B. (2014) Atomic properties and chemical bonding in the pyrite and marcasite polymorphs of FeS2: a combined experimental and theoretical electron density study. Chemical Science: 4: 1408-1421; https://pubs.rsc.org/en/content/articlelanding/2014/SC/C3SC52977K#!divAbstractRickard, D. (2015) Pyrite. A Natural History of Fool's Gold. Oxford University Press, 297 pp.Le Pape, P., Blanchard, M., Brest, J., Boulliard, J.-C., Ikogou, M., Stetten, L., Wang, S., Landrot, G., Morin, G. (2017): Arsenic incorporation in pyrite at ambient temperature at both tetrahedral S\u2013I and octahedral FeII sites: Evidence from EXAFS\u2013DFT analysis. Environmental Science & Technology 51, 150-158.Gregory, D.D., Kohn, M.J. (2020) Pyrite: fool's gold records starvation of bacteria. American Mineralogist 105, 282-283. [https://doi.org/10.2138/am-2020-7234, open access]Zhang, He, Qian, G., Cai, Y., Gibson, C., Pring, A. (2021): The crystal chemistry of arsenian pyrites: A Raman spectroscopic study. American Mineralogist: 106 (in press).\n", "mindat.org URL": "https://www.mindat.org/min-3314.htmlPlease feel free to link to this page.", "Search Engines": "Look for Pyrite on Google\nLook for Pyrite images on Google", "External Links": "Look for Pyrite on Webmineral\nLook for Pyrite on Wikipedia\nLook for Pyrite on Mineralien Atlas\nRaman and XRD data at RRUFF project\nReferences and PDF downloads at RRUFF project\nAmerican Mineralogist Crystal Structure Database\nHandbook of Mineralogy page PDF", "Mineral Dealers": "Quality Minerals at Fair PricesBuy rare minerals from Excalibur MineralsQuality Mineral Specimens For Sale ~ Cal Neva Mineral CompanyFabre Minerals - search for Pyrite specimensBuy from David K Joyce mineralsWilensky Exquisite MineralsTop quality minerals from Kristalle of CaliforniaFine Minerals from Weinrich Minerals, Inc.Buy from McDougall MineralsBlue Gems Australian & InternationalHigh-end worldwide specimens & outstanding customer service"}, "Pyrobelonite": {"Formula": "PbMn2+(VO4)(OH)", "Colour": "Red, dark red", "Lustre": "Adamantine, Sub-Adamantine", "Hardness": ["3\u00bd on Mohs scale", "3\u00bd"], "Specific Gravity": "5.58 - 5.79", "Crystal System": "Orthorhombic", "Member of": "Adelite-Descloizite Group", "Name": "Named by Gustav Flink in 1919 from the Greek \u03c0\u03c5\u03c1 for \"fire\" and \u03b2\u03b5\u03bb\u03cc\u03bd\u03b7 for \"needle,\" in allusion to its colour and the acicular habit of its crystals. ", "Type Locality": "\u24d8 L\u00e5ngban mine, L\u00e5ngban Ore District, Filipstad, V\u00e4rmland County, Sweden", "Isostructural with": "Descloizite-Mottramite Series", "IMA status": "Approved, 'Grandfathered' (first described prior to 1959)", "First published": "1919", "Strunz 8th ed.": "7/B.27-50", "Nickel-Strunz 10th (pending) ed.": "8.BH.408 : PHOSPHATES, ARSENATES, VANADATESB : Phosphates, etc., with additional anions, without H2OH : With medium-sized and large cations, (OH,etc.):RO4 = 1:1", "Dana 8th ed.": "41.5.2.341 : ANHYDROUS PHOSPHATES, ETC.CONTAINING HYDROXYL OR HALOGEN5 : (AB)2(XO4)Zq", "Hey's CIM Ref.": "21.4.1721 : Vanadates (and vanadates with arsenate or phosphate)4 : Vanadates of U, Mn, Fe or Ni", "Pronounciation": "PlayRecorded byCountry\n\n\nSorry, your browser doesn't support HTML5 audio.Jolyon & Katya RalphUnited Kingdom", "Transparency": "Transparent", "Streak": "Orange-yellow, red-orange", "Tenacity": "Brittle", "Cleavage": "None Observed", "Fracture": "Conchoidal", "Density": "5.58 - 5.79 g/cm3 (Measured) \u00a0\u00a0\u00a05.82 g/cm3 (Calculated)", "Type": "Biaxial (-)", "RI values": " n\u03b1 = 2.320 n\u03b2 = 2.360 n\u03b3 = 2.370", "2V": "Measured: 29\u00b0 , Calculated: 52\u00b0 ", "Birefringence": "0.05", "Surface Relief": "Very High", "Anisotropism": "Strong", "Bireflectance": "Visible", "Dispersion": "none", "Optical Extinction": "Parallel, XYZ = acb", "Colour in reflected light": "Gray with red to orange internal glints", "Pleochroism": "Visible", "Comments": ["shades of red-brown.", "ICDD 20-588"], "IMA Formula": "PbMn2+VO4(OH)", "Elements listed": "H, Mn, O, Pb, V - search for minerals with similar chemistry", "Class (H-M)": "mmm (2/m 2/m 2/m) - Dipyramidal", "Space Group": "Pnma ", "Setting": "Pnma ", "Cell Parameters": "a = 7.62 \u212b, b = 6.17 \u212b, c = 9.47 \u212b", "Ratio": "a:b:c = 1.235 : 1 : 1.535", "Unit Cell V": "445.24 \u00c5\u00b3 (Calculated from Unit Cell)", "Z": "4", "Morphology": "Acicular [001] or acute pyramidal; blocky.", "Comment": "Given as Pnam. Kolitsch (2001) gives the following parameters for a practically pure sample: a = 7.646(2), b = 6.179(1), c = 9.507(2) \u212b.", "Powder Diffraction Data": "d-spacingIntensity5.14 \u00c5(70)4.27 \u00c5(40)3.672 \u00c5(65)3.24 \u00c5(100)2.914 \u00c5(50)2.635 \u00c5(70)2.323 \u00c5(70)1.667 \u00c5(65)", "Geological Setting": "Mineralization in fractures ", "Reference": "Flink, G. (1919) Pyrobelonit, ein neues Blei-Mangan-Vanadat von L\u00e5ngbanshyttan. Geologiska F\u00f6reningens i Stockholm F\u00f6rhandlingar: 41: 433-447.", "Download": "https://rruff.info/rruff_1.0/uploads/GFSF41_433.pdf", "In UV light": "Not fluorescent.", "Health Risks": "No information on health risks for this material has been entered into the database. You should always treat mineral specimens with care.", "Reference List": "Sort by Year (asc) | by Year (desc) | by Author (A-Z) | by Author (Z-A)Flink, G. (1919) Pyrobelonit, ein neues Blei-Mangan-Vanadat von L\u00e5ngbanshyttan. Geologiska F\u00f6reningens i Stockholm F\u00f6rhandlingar: 41: 433-447.Foshag, W.F. (1920) New minerals. American Mineralogist: 5: 86-88.Larsen, E.S. and Berman, H. (1934) The Microscopic Determination of the Nonopaque Minerals, Second edition, USGS Bulletin 848: 211.Strunz, H. (1939) Mineralien der Descloizitgruppe. Konichalcit, Staszizit, Austinit, Duftit, Ar\u00e4oxen, Volborthit, Pyrobelonit. Zeitschrift f\u00fcr Kristallographie, Mineralogie und Petrographie, Leipzig (A): 101: 496-506.Richmond, W.E. (1940) Crystal chemistry of the phosphates, arsenates and vanadates of the type A2XO4(Z). American Mineralogist: 25: 441-478.Barnes, W.H., Qurashi, M.M. (1952) Unit cell and space group data for certain vanadium minerals. American Mineralogist: 37: 407-422.Bachmann, H.G. (1953) Beitr\u00e4ge zur kristallchemie nat\u00fcrlicher und k\u00fcnstlicher schwermetallvanadate. I. Die morphologie des descloizit (und des pyrobelonit). Neues Jahrbuch f\u00fcr Mineralogie, Monatshefte: 1953: 68-82.Donaldson, D.M., Barnes, W.H. (1955) The structures of the minerals of the descloizite group and adelite groups: II - pyrobelonite. American Mineralogist: 40: 580-596.Welin, E. (1968) Notes on the mineralogy of Sweden 6. X-ray powder data for minerals from L\u00e5ngban and the related mineral deposits of Central Sweden. Arkiv f\u00f6r Mineralogi och Geologi: 4: 499-541.Barnes, W.H., Ahmed, F.R. (1969) A note on the unit cell contents, and X-ray diffraction powder pattern, of pyrobelonite. The Canadian Mineralogist: 10: 117-123.Criddle, A.J., Symes, R.F. (1977) Mineralization at T\u0177 Coch, Glamorgan (Mid Glamorgan), Wales: The Second Occurrence of Pyrobelonite. Mineralogical Magazine: 41(317): 85-90.Dunn, P.J. (1983) Pyrobelonite from Franklin, New Jersey. The Mineralogical Record: 14: 203-204.Pring, A., Francis, G., Birch, W.D. (1989) Pyrobelonite, arsenoklasite, switzerite and other recent finds at Iron Monarch, South Australia. Australian Mineralogist: 4(2): 49-55.Rodnova, V.I. (1993) A rare finding of pyrobelonite in the iron-manganese ores of Atasu deposit (central Kazakhstan). In Proceedings of the Russian Mineralogical Society: 122: 62-65.Kolitsch, U. (2001) Refinement of pyrobelonite, PbMnIIVO4(OH), a member of the descloizite group. Acta Crystallographica: E57: i119-i121.\n", "mindat.org URL": "https://www.mindat.org/min-3315.htmlPlease feel free to link to this page.", "Search Engines": "Look for Pyrobelonite on Google\nLook for Pyrobelonite images on Google", "External Links": "Look for Pyrobelonite on Webmineral\nLook for Pyrobelonite on Wikipedia\nLook for Pyrobelonite on Mineralien Atlas\nRaman and XRD data at RRUFF project\nReferences and PDF downloads at RRUFF project\nAmerican Mineralogist Crystal Structure Database\nHandbook of Mineralogy page PDF", "Mineral Dealers": "Blue Gems Australian & InternationalWilensky Exquisite MineralsBuy from McDougall MineralsBuy rare minerals from Excalibur MineralsQuality Minerals at Fair PricesFine Minerals from Weinrich Minerals, Inc.High-end worldwide specimens & outstanding customer serviceQuality Mineral Specimens For Sale ~ Cal Neva Mineral CompanyBuy from David K Joyce mineralsFabre Minerals - search for Pyrobelonite specimensTop quality minerals from Kristalle of California"}}